<VTKFile type="UnstructuredGrid" version="1.0" byte_order="LittleEndian">
  <UnstructuredGrid>
    <Piece NumberOfPoints="8" NumberOfCells="1">
      <PointData>
        <DataArray type="Float32" Name="PointValues" NumberOfComponents="1" format="ascii">
          1.0 2.0 3.0 4.0 5.0 6.0 7.0 8.0
        </DataArray>
      </PointData>
      <CellData>
        <DataArray type="Int32" Name="CellValues" NumberOfComponents="1" format="ascii">
          100
        </DataArray>
      </CellData>
      <Points>
        <DataArray type="Float32" NumberOfComponents="3" format="ascii">
          0.0 0.0 0.0
          1.0 0.0 0.0
          1.0 1.0 0.0
          0.0 1.0 0.0
          0.0 0.0 1.0
          1.0 0.0 1.0
          1.0 1.0 1.0
          0.0 1.0 1.0
        </DataArray>
      </Points>
      <Cells>
        <DataArray type="Int32" Name="connectivity" format="ascii">
          0 1 2 3 4 5 6 7
        </DataArray>
        <DataArray type="Int32" Name="offsets" format="ascii">
          8
        </DataArray>
        <DataArray type="UInt8" Name="types" format="ascii">
          11
        </DataArray>
      </Cells>
    </Piece>
  </UnstructuredGrid>
</VTKFile>
